4
Energy:       0.0048280
C      0.00000    0.00000    0.00000
O      1.21945   -0.00000    0.00000
H     -0.54221   -0.80393   -0.48546
H     -0.54221    0.80393    0.48546
